Program Version,EnergyPlus, Version 22.2.0-c249759bad, YMD=2025.10.01 12:45
1,5,Environment Title[],Latitude[deg],Longitude[deg],Time Zone[],Elevation[m]
2,8,Day of Simulation[],Month[],Day of Month[],DST Indicator[1=yes 0=no],Hour[],StartMinute[],EndMinute[],DayType
3,5,Cumulative Day of Simulation[],Month[],Day of Month[],DST Indicator[1=yes 0=no],DayType  ! When Daily Report Variables Requested
4,2,Cumulative Days of Simulation[],Month[]  ! When Monthly Report Variables Requested
5,1,Cumulative Days of Simulation[] ! When Run Period Report Variables Requested
6,1,Calendar Year of Simulation[] ! When Annual Report Variables Requested
7,1,Environment,Site Outdoor Air Drybulb Temperature [C] !TimeStep
8,1,Environment,Site Outdoor Air Dewpoint Temperature [C] !TimeStep
9,1,Environment,Site Outdoor Air Wetbulb Temperature [C] !TimeStep
10,1,Environment,Site Wind Speed [m/s] !TimeStep
11,1,Environment,Site Wind Direction [deg] !TimeStep
12,1,Environment,Site Diffuse Solar Radiation Rate per Area [W/m2] !TimeStep
13,1,Environment,Site Direct Solar Radiation Rate per Area [W/m2] !TimeStep
14,1,Environment,Site Solar Azimuth Angle [deg] !TimeStep
15,1,Environment,Site Solar Altitude Angle [deg] !TimeStep
16,1,BLOCK `BALCONY_0` STOREY 0,Zone Mean Air Temperature [C] !TimeStep
17,1,BLOCK `KITCHEN_1` STOREY 0,Zone Mean Air Temperature [C] !TimeStep
18,1,BLOCK `ROOM_2` STOREY 0,Zone Mean Air Temperature [C] !TimeStep
19,1,BLOCK `CORRIDOR_3` STOREY 0,Zone Mean Air Temperature [C] !TimeStep
20,1,BLOCK `BATHROOM_4` STOREY 0,Zone Mean Air Temperature [C] !TimeStep
End of Data Dictionary
1,SUMMER,  37.46,-122.11,  -8.00,   1.00
2,1, 7, 1, 0, 1, 0.00,15.00,Saturday
7,18.65
8,13.500000000000002
9,15.506138388388512
10,1.425
11,305.0
12,0.0
13,0.0
14,0.813845992880616
15,-29.37040777546127
16,27.336486986908273
17,26.730490769786318
18,26.93354997146783
19,26.829042621592624
20,27.018197514230934
2,1, 7, 1, 0, 1,15.00,30.00,Saturday
7,17.6
8,13.2
9,14.95520882365769
10,1.35
11,300.0
12,0.0
13,0.0
14,4.763802213187274
15,-29.225541798861435
16,27.223190332025656
17,26.634738944350847
18,26.80846971940644
19,26.717621404585863
20,26.915616866754426
2,1, 7, 1, 0, 1,30.00,45.00,Saturday
7,16.55
8,12.899999999999999
9,14.372986587507057
10,1.275
11,295.0
12,0.0
13,0.0
14,8.687533996163891
15,-28.87684189434883
16,27.104162902391405
17,26.53786456930671
18,26.678526774509674
19,26.60646286493375
20,26.80997778540498
2,1, 7, 1, 0, 1,45.00,60.00,Saturday
7,15.5
8,12.6
9,13.760851984421823
10,1.2
11,290.0
12,0.0
13,0.0
14,12.564416911604267
15,-28.327824491869773
16,26.980445919475347
17,26.43471881904898
18,26.54402724272
19,26.489558213552094
20,26.69876364002583
2,1, 7, 1, 0, 2, 0.00,15.00,Saturday
7,15.4
8,12.549999999999999
9,13.692276921440287
10,1.15
11,290.0
12,0.0
13,0.0
14,16.37569581875607
15,-27.583868453319255
16,26.853599645136384
17,26.325625429166053
18,26.405897892915696
19,26.36706723684913
20,26.583127353741755
2,1, 7, 1, 0, 2,15.00,30.00,Saturday
7,15.3
8,12.5
9,13.623522390841163
10,1.1
11,290.0
12,0.0
13,0.0
14,20.105101419663747
15,-26.651968061529587
16,26.72372457703819
17,26.212461614094508
18,26.264311435227064
19,26.24080554235953
20,26.464321205517415
2,1, 7, 1, 0, 2,30.00,45.00,Saturday
7,15.2
8,12.450000000000001
9,13.554584812043055
10,1.05
11,290.0
12,0.0
13,0.0
14,23.73925634632866
15,-25.540433924215943
16,26.590557474903523
17,26.096304106392342
18,26.11922575318387
19,26.11168795450827
20,26.342742525521924
2,1, 7, 1, 0, 2,45.00,60.00,Saturday
7,15.1
8,12.4
9,13.485456733279337
10,1.0
11,290.0
12,0.0
13,0.0
14,27.267863049020345
15,-24.25856942518454
16,26.4543386004381
17,25.977617100074088
18,25.970989073858
19,25.979986071604092
20,26.218629969874375
2,1, 7, 1, 0, 3, 0.00,15.00,Saturday
7,15.0
8,12.375
9,13.441996803530513
10,0.925
11,310.0
12,0.0
13,0.0
14,30.68369298196307
15,-22.816348511955272
16,26.31560875763971
17,25.856818196932867
18,25.82024830933949
19,25.845994249837617
20,26.092405798886315
2,1, 7, 1, 0, 3,15.00,30.00,Saturday
7,14.899999999999999
8,12.350000000000001
9,13.398114757371479
10,0.85
11,330.0
12,0.0
13,0.0
14,33.98241537206135
15,-21.224115748023042
16,26.174831138268846
17,25.734363752394977
18,25.667614496323473
19,25.710133796393144
20,25.96451929325487
2,1, 7, 1, 0, 3,30.00,45.00,Saturday
7,14.799999999999999
8,12.325000000000001
9,13.353822411582643
10,0.7749999999999999
11,350.0
12,0.0
13,0.0
14,37.16231276177653
15,-19.49232316710142
16,26.032324327336397
17,25.61062703799984
18,25.513509564183153
19,25.572796886307806
20,25.835298953219073
2,1, 7, 1, 0, 3,45.00,60.00,Saturday
7,14.7
8,12.3
9,13.309121274226916
10,0.7
11,10.0
12,0.0
13,0.0
14,40.22393066855575
15,-17.631311939180154
16,25.88834838913495
17,25.485853839607294
18,25.358192768577112
19,25.434267214091356
20,25.704963979442432
2,1, 7, 1, 0, 4, 0.00,15.00,Saturday
7,14.624999999999998
8,12.250000000000002
9,13.23725447019623
10,0.6499999999999999
11,10.0
12,0.0
13,0.0
14,43.16970270614778
15,-15.651141198553292
16,25.74314953907911
17,25.360203663055604
18,25.201816861310025
19,25.294742943656743
20,25.573683558532952
2,1, 7, 1, 0, 4,15.00,30.00,Saturday
7,14.55
8,12.2
9,13.165396076027074
10,0.6
11,10.0
12,0.0
13,0.0
14,46.0035833106129
15,-13.561462117227094
16,25.59695250751348
17,25.23379842134652
18,25.044434287124776
19,25.154376853737695
20,25.441607124461463
2,1, 7, 1, 0, 4,30.00,45.00,Saturday
7,14.475000000000001
8,12.149999999999999
9,13.093537156350267
10,0.55
11,10.0
12,0.0
13,0.0
14,48.730710289967654
15,-11.371432542783248
16,25.449949281998045
17,25.106744684972213
18,24.885925868718772
19,25.013290594589073
20,25.308869617488114
2,1, 7, 1, 0, 4,45.00,60.00,Saturday
7,14.4
8,12.1
9,13.02167523092577
10,0.5
11,10.0
12,0.0
13,0.0
14,51.357110444011354
15,-9.089666089235312
16,25.302295285471725
17,24.979131406446516
18,24.725652740867393
19,24.87155805264907
20,25.175583782201453
2,1, 7, 1, 0, 5, 0.00,15.00,Saturday
7,14.3
8,12.075
9,12.976093271850473
10,0.425
11,10.0
12,0.0
13,0.0
14,53.88945433841395
15,-6.7242091687277785
16,25.154105547340162
17,24.851019400668065
18,24.567806372602
19,24.729161817332486
20,25.041827712297515
2,1, 7, 1, 0, 5,15.00,30.00,Saturday
7,14.2
8,12.05
9,12.930109074898892
10,0.35
11,10.0
12,0.0
13,0.0
14,56.33486119493952
15,-4.2825397514018295
16,25.005441093647697
17,24.72242873784926
18,24.41679936642511
19,24.585868951511145
20,24.90762807292261
2,1, 7, 1, 0, 5,30.00,45.00,Saturday
7,14.1
8,12.025
9,12.883727940306015
10,0.275
11,10.0
12,0.0
13,0.0
14,58.70075161730454
15,-1.7715823507148025
16,24.856274748043056
17,24.593320500218756
18,24.27146489550733
19,24.441679382868145
20,24.77292886317023
2,1, 7, 1, 0, 5,45.00,60.00,Saturday
7,14.0
8,12.0
9,12.836940910203902
10,0.2
11,10.0
12,16.5
13,181.5
14,60.99474416458865
15,0.802265369589559
16,24.706399937721066
17,24.46356841030796
18,24.12915688349709
19,24.302795556171205
20,24.637507283693783
2,1, 7, 1, 0, 6, 0.00,15.00,Saturday
7,14.15
8,12.1
9,12.956746495525758
10,0.15000000000000002
11,10.0
12,24.75
13,272.25
14,63.22459122547986
15,3.4330980332371763
16,24.555155735691997
17,24.333007291610226
18,23.988825306718102
19,24.168806661132088
20,24.50163244746974
2,1, 7, 1, 0, 6,15.00,30.00,Saturday
7,14.3
8,12.2
9,13.076297411430398
10,0.1
11,10.0
12,33.0
13,363.0
14,65.39814989300928
15,6.115462813854696
16,24.41113107518224
17,24.20492206362577
18,23.851346938832517
19,24.037987000273226
20,24.371232034371612
2,1, 7, 1, 0, 6,30.00,45.00,Saturday
7,14.45
8,12.3
9,13.195590692992605
10,0.05
11,10.0
12,43.5
13,418.0
14,67.52338432575586
15,8.844316509901184
16,24.27434581142752
17,24.08342757910001
18,23.718648536361393
19,23.910883776999437
20,24.247168508464558
2,1, 7, 1, 0, 6,45.00,60.00,Saturday
7,14.6
8,12.4
9,13.314626352431446
10,0.0
11,10.0
12,54.0
13,473.0
14,69.60839723048406
15,11.614980733351857
16,24.144154890055137
17,23.96926596785332
18,23.59296304383471
19,23.789703496779765
20,24.129548621196857
2,1, 7, 1, 0, 7, 0.00,15.00,Saturday
7,15.25
8,12.8
9,13.784282059478448
10,0.125
11,10.0
12,64.5
13,528.0
14,71.66148951861048
15,14.423095922788672
16,24.02252823258373
17,23.862627255749658
18,23.476518770995913
19,23.676845527478307
20,24.02016371417686
2,1, 7, 1, 0, 7,15.00,30.00,Saturday
7,15.899999999999999
8,13.2
9,14.246904556081581
10,0.25
11,10.0
12,75.0
13,583.0
14,73.69124885546096
15,17.264574374217602
16,23.91244518799153
17,23.764769001479614
18,23.37155413626469
19,23.574503247423284
20,23.92172429885703
2,1, 7, 1, 0, 7,30.00,45.00,Saturday
7,16.549999999999997
8,13.6
9,14.70236737395719
10,0.375
11,10.0
12,82.25
13,617.5
14,75.70666978720917
15,20.135552007239788
16,23.816360886928294
17,23.677663366867318
18,23.280585823710208
19,23.485046144598172
20,23.83686403124069
2,1, 7, 1, 0, 7,45.00,60.00,Saturday
7,17.2
8,14.0
9,15.15054910423831
10,0.5
11,10.0
12,89.5
13,652.0
14,77.71731051703462
15,23.032338110765867
16,23.736285258442464
17,23.603073258097275
18,23.204951264225034
19,23.41080800942854
20,23.767930801594108
2,1, 7, 1, 0, 8, 0.00,15.00,Saturday
7,17.45
8,14.05
9,15.301384248743707
10,0.975
11,10.0
12,96.75
13,686.5
14,79.73349441361124
15,25.95136179231785
16,23.673451799354737
17,23.542201386692312
18,23.14593787241519
19,23.351450127781046
20,23.716538503671146
2,1, 7, 1, 0, 8,15.00,30.00,Saturday
7,17.7
8,14.1
9,15.450715704941567
10,1.45
11,10.0
12,104.0
13,721.0
14,81.76656828419087
15,28.88911322456372
16,23.62863862887521
17,23.49580293205947
18,23.104471640028166
19,23.30745606418974
20,23.683804311581287
2,1, 7, 1, 0, 8,30.00,45.00,Saturday
7,17.95
8,14.149999999999999
9,15.598530123440932
10,1.9249999999999998
11,10.0
12,108.25
13,743.0
14,83.82923479712734
15,31.84207695476928
16,23.60236609035186
17,23.464337124845315
18,23.08036264377538
19,23.279652142470464
20,23.67053519185452
2,1, 7, 1, 0, 8,45.00,60.00,Saturday
7,18.2
8,14.2
9,15.744820187257806
10,2.4
11,10.0
12,112.5
13,765.0
14,85.93598388560372
15,34.80665339089467
16,23.595048099755775
17,23.44810366040371
18,23.073592034913503
19,23.268407560473772
20,23.67723100736973
2,1, 7, 1, 0, 9, 0.00,15.00,Saturday
7,18.45
8,14.45
9,15.977886325256303
10,2.65
11,10.0
12,116.75
13,787.0
14,88.10365853180583
15,37.77906291129234
16,23.60708276007009
17,23.446459750294913
18,23.082283483125167
19,23.272913145307662
20,23.704060892137
2,1, 7, 1, 0, 9,15.00,30.00,Saturday
7,18.7
8,14.7
9,16.210966273939405
10,2.9
11,10.0
12,121.0
13,809.0
14,90.35220554267657
15,40.755224566518166
16,23.63591660499437
17,23.45855230405087
18,23.103087006931116
19,23.29192471390767
20,23.751564477494615
2,1, 7, 1, 0, 9,30.00,45.00,Saturday
7,18.95
8,14.95
9,16.44406020289414
10,3.15
11,10.0
12,122.75
13,824.0
14,92.70568402983633
15,43.730597579592015
16,23.67653180422538
17,23.48297270559659
18,23.132405869438553
19,23.323411112116265
20,23.82226581316676
2,1, 7, 1, 0, 9,45.00,60.00,Saturday
7,19.2
8,15.2
9,16.67716745923943
10,3.4
11,10.0
12,124.5
13,839.0
14,95.19363652948925
15,46.699968042839956
16,23.725152676375235
17,23.51112711817059
18,23.154603286931582
19,23.35704728515957
20,23.915296841434994
2,1, 7, 1, 0,10, 0.00,15.00,Saturday
7,19.549999999999997
8,15.399999999999999
9,16.91238235562167
10,3.275
11,12.5
12,126.25
13,854.0
14,97.8529744453247
15,49.65715411269911
16,23.776394167018182
17,23.545815631196596
18,23.18876608106765
19,23.401343978425096
20,23.998858162300724
2,1, 7, 1, 0,10,15.00,30.00,Saturday
7,19.9
8,15.6
9,17.145530716887606
10,3.15
11,15.0
12,128.0
13,869.0
14,100.7305959826039
15,52.59458859093152
16,23.8460730117058
17,23.60135253439219
18,23.247303570563144
19,23.47043658357894
20,24.08688609578444
2,1, 7, 1, 0,10,30.00,45.00,Saturday
7,20.25
8,15.8
9,17.376572301686394
10,3.025
11,17.5
12,128.0
13,878.75
14,103.88704464876542
15,55.50271478458659
16,23.93328803237978
17,23.679455140445754
18,23.333049556087825
19,23.57001360858895
20,24.192676735642998
2,1, 7, 1, 0,10,45.00,60.00,Saturday
7,20.6
8,16.0
9,17.605496263981625
10,2.9
11,20.0
12,128.0
13,888.5
14,107.40162330326338
15,58.36909490618041
16,24.031790595886363
17,23.77615980885102
18,23.45083698469599
19,23.68599941762024
20,24.31558529652183
2,1, 7, 1, 0,11, 0.00,15.00,Saturday
7,21.3
8,16.0
9,17.861094150259284
10,3.15
11,15.0
12,128.0
13,898.25
14,111.37945931836092
15,61.17707302676933
16,24.139135930558865
17,23.88736144639275
18,23.58969500509482
19,23.811150286684803
20,24.45019908701283
2,1, 7, 1, 0,11,15.00,30.00,Saturday
7,22.0
8,16.0
9,18.09590584899636
10,3.4
11,10.0
12,128.0
13,908.0
14,115.96091316773986
15,63.90375015929878
16,24.256001803082686
17,24.008471458598972
18,23.73925039492917
19,23.945758438447054
20,24.59392611060757
2,1, 7, 1, 0,11,30.00,45.00,Saturday
7,22.699999999999996
8,16.0
9,18.309000316758983
10,3.65
11,5.0
12,127.75
13,913.0
14,121.3329572563638
15,66.51692354051191
16,24.382699185929553
17,24.138769436314153
18,23.896609519108292
19,24.09210300040603
20,24.746419988996767
2,1, 7, 1, 0,11,45.00,60.00,Saturday
7,23.4
8,16.0
9,18.499386886766896
10,3.9
11,0.0
12,127.5
13,918.0
14,127.7394362591774
15,68.97057967005684
16,24.518294008527178
17,24.278871394804504
18,24.063056592327584
19,24.250308914309606
20,24.907045660268388
2,1, 7, 1, 0,12, 0.00,15.00,Saturday
7,23.9
8,16.05
9,18.71658882599655
10,3.775
11,0.0
12,127.25
13,923.0
14,135.47953017842585
15,71.19877019842711
16,24.661489603578985
17,24.42845207334931
18,24.239358888098977
19,24.418800836513224
20,25.074341301389953
2,1, 7, 1, 0,12,15.00,30.00,Saturday
7,24.4
8,16.1
9,18.925892259936436
10,3.65
11,0.0
12,127.0
13,928.0
14,144.86698775303972
15,73.10900399563455
16,24.81133188714824
17,24.5863664175133
18,24.42469914536678
19,24.59604221877559
20,25.246799358957208
2,1, 7, 1, 0,12,30.00,45.00,Saturday
7,24.9
8,16.15
9,19.127090485026304
10,3.525
11,0.0
12,127.0
13,929.0
14,156.10072541218554
15,74.5801353691899
16,24.967340754863127
17,24.751717944191046
18,24.617950984982148
19,24.78126646921294
20,25.42345918535765
2,1, 7, 1, 0,12,45.00,60.00,Saturday
7,25.4
8,16.2
9,19.319974482703287
10,3.4
11,0.0
12,127.0
13,930.0
14,169.01815504530234
15,75.47626002331425
16,25.129212201484364
17,24.924122539426538
18,24.81849622972285
19,24.97408668159853
20,25.60373677833452
2,1, 7, 1, 0,13, 0.00,15.00,Saturday
7,25.9
8,16.25
9,19.504314349348224
10,3.675
11,357.5
12,127.0
13,931.0
14,182.8701566021299
15,75.68790437180485
16,25.296495625697172
17,25.1032300481494
18,25.025942838475807
19,25.173931983481378
20,25.787008028757676
2,1, 7, 1, 0,13,15.00,30.00,Saturday
7,26.4
8,16.299999999999997
9,19.679874919772995
10,3.95
11,355.0
12,127.0
13,932.0
14,196.46645903689154
15,75.18547357281395
16,25.46839427787267
17,25.288220563795107
18,25.23947995156897
19,25.379758321375444
20,25.972331320135552
2,1, 7, 1, 0,13,30.00,45.00,Saturday
7,26.9
8,16.349999999999998
9,19.846409820119707
10,4.225
11,352.5
12,127.25
13,928.75
14,208.74593073746095
15,74.03675911335519
16,25.643634972030256
17,25.47756481076537
18,25.457458489165052
19,25.58992575860254
20,26.158300783542508
2,1, 7, 1, 0,13,45.00,60.00,Saturday
7,27.4
8,16.4
9,20.003649808727836
10,4.5
11,350.0
12,127.5
13,925.5
14,219.21248890897135
15,72.36874502811466
16,25.820711681996713
17,25.669332317150072
18,25.677682692607743
19,25.802467990757957
20,26.34330450222349
2,1, 7, 1, 0,14, 0.00,15.00,Saturday
7,27.749999999999996
8,15.849999999999998
9,19.849797462018838
10,4.425
11,347.5
12,127.75
13,922.25
14,227.887183827748
15,70.31458966889649
16,25.998263949318954
17,25.861671327501842
18,25.898033802894908
19,26.015502375131373
20,26.52592444296004
2,1, 7, 1, 0,14,15.00,30.00,Saturday
7,28.1
8,15.299999999999999
9,19.679827433698236
10,4.35
11,345.0
12,128.0
13,919.0
14,235.0397458569068
15,67.98408396161791
16,26.175376818759226
17,26.053187284794234
18,26.117010136122765
19,26.227576100034348
20,26.70524628589643
2,1, 7, 1, 0,14,30.00,45.00,Saturday
7,28.450000000000003
8,14.749999999999998
9,19.49298504225132
10,4.275
11,342.5
12,128.0
13,911.0
14,240.98724739470492
15,65.45810377277185
16,26.35171863651481
17,26.243149043180857
18,26.333998079404857
19,26.437863544782427
20,26.880994824773428
2,1, 7, 1, 0,14,45.00,60.00,Saturday
7,28.8
8,14.2
9,19.288455753845472
10,4.2
11,340.0
12,128.0
13,903.0
14,246.00790824359805
15,62.79356868216842
16,26.527239467551556
17,26.431196812188976
18,26.548918275662597
19,26.645887580556337
20,27.053218014798745
2,1, 7, 1, 0,15, 0.00,15.00,Saturday
7,28.6
8,14.349999999999998
9,19.325484022001227
10,4.3500000000000005
11,337.5
12,128.0
13,895.0
14,250.32130317365667
15,60.030157187298975
16,26.701764401739748
17,26.61686689792854
18,26.7616079927651
19,26.851075079889878
20,27.221853543875017
2,1, 7, 1, 0,15,15.00,30.00,Saturday
7,28.4
8,14.5
9,19.358960167251684
10,4.5
11,335.0
12,128.0
13,887.0
14,254.09379532609643
15,57.19578990257896
16,26.87474341641399
17,26.799265309225028
18,26.971354329472952
19,27.05244997202104
20,27.386450902284366
2,1, 7, 1, 0,15,30.00,45.00,Saturday
7,28.2
8,14.650000000000002
9,19.388952873934493
10,4.6499999999999995
11,332.5
12,127.25
13,874.25
14,257.449957576404
15,54.31049477390323
16,27.045109916403543
17,26.976903340296683
18,27.17663770869493
19,27.248459639903842
20,27.54601788356762
2,1, 7, 1, 0,15,45.00,60.00,Saturday
7,28.0
8,14.8
9,19.415533805388193
10,4.8
11,330.0
12,126.5
13,861.5
14,260.48329159142776
15,51.38899295120227
16,27.211509913010424
17,27.14800415706578
18,27.375420728187837
19,27.43723681938603
20,27.699272588135535
2,1, 7, 1, 0,16, 0.00,15.00,Saturday
7,27.95
8,14.600000000000001
9,19.283304170728876
10,5.0249999999999995
11,327.5
12,125.75
13,848.75
14,263.26464932092983
15,48.44240476892408
16,27.372611812107056
17,27.310937660488793
18,27.565644697707608
19,27.61698775868284
20,27.84499255287043
2,1, 7, 1, 0,16,15.00,30.00,Saturday
7,27.9
8,14.4
9,19.151016659794863
10,5.25
11,325.0
12,125.0
13,836.0
14,265.8484345687291
15,45.479379639625215
16,27.527231427409117
17,27.464406352571327
18,27.745503938919835
19,27.786170249455203
20,27.982157630346727
2,1, 7, 1, 0,16,30.00,45.00,Saturday
7,27.85
8,14.2
9,19.018675724409903
10,5.4750000000000005
11,322.5
12,121.75
13,817.5
14,268.2770611769918
15,42.50685407496097
16,27.674314796942042
17,27.60739566849879
18,27.913439523141957
19,27.94346966283619
20,28.109921156559967
2,1, 7, 1, 0,16,45.00,60.00,Saturday
7,27.8
8,14.0
9,18.886290250891726
10,5.7
11,320.0
12,118.5
13,799.0
14,270.5841394112418
15,39.53056927493142
16,27.81287664508374
17,27.73904315849534
18,28.06795848696549
19,28.08768963822471
20,28.22753033367234
2,1, 7, 1, 0,17, 0.00,15.00,Saturday
7,27.55
8,14.0
9,18.781602723224548
10,5.65
11,320.0
12,115.25
13,780.5
14,272.79676088484723
15,36.55543189149938
16,27.941938411811574
17,27.858534700304094
18,28.207306488544635
19,28.217612598454057
20,28.33426569999376
2,1, 7, 1, 0,17,15.00,30.00,Saturday
7,27.3
8,14.0
9,18.67529539621273
10,5.6
11,320.0
12,112.0
13,762.0
14,274.9371502740231
15,33.58577129619407
16,28.06062764224796
17,27.96524297070914
18,28.328687349439075
19,28.331779985689273
20,28.429583543583863
2,1, 7, 1, 0,17,30.00,45.00,Saturday
7,27.05
8,14.0
9,18.567391587217934
10,5.55
11,320.0
12,106.0
13,733.75
14,277.0238719227786
15,30.62552771464729
16,28.16824482581024
17,28.058952009889104
18,28.435497824990996
19,28.43118905138244
20,28.513309012240015
2,1, 7, 1, 0,17,45.00,60.00,Saturday
7,26.8
8,14.0
9,18.45789768525784
10,5.5
11,320.0
12,100.0
13,705.5
14,279.07272170097036
15,27.678393678184765
16,28.263010079243504
17,28.13968914407813
18,28.531654306304006
19,28.517626328882375
20,28.58546243911919
2,1, 7, 1, 0,18, 0.00,15.00,Saturday
7,26.5
8,14.0
9,18.394774969971536
10,5.2
11,322.5
12,94.0
13,677.25
14,281.09739431268656
15,24.74792369107277
16,28.34942799819617
17,28.207371336013594
18,28.616905032990193
19,28.590738487434603
20,28.645948230598695
2,1, 7, 1, 0,18,15.00,30.00,Saturday
7,26.200000000000003
8,14.0
9,18.327479416241363
10,4.9
11,325.0
12,88.0
13,649.0
14,283.1099886583971
15,21.837622163261738
16,28.42809790095848
17,28.261859092323714
18,28.689608026606013
19,28.649703962867537
20,28.694638273054096
2,1, 7, 1, 0,18,30.00,45.00,Saturday
7,25.900000000000002
8,14.0
9,18.2560864146932
10,4.6
11,327.5
12,79.25
13,601.25
14,285.12139491647133
15,18.95101649690764
16,28.497890582397037
17,28.30326762708322
18,28.749178793016473
19,28.694542703768604
20,28.731665107138966
2,1, 7, 1, 0,18,45.00,60.00,Saturday
7,25.6
8,14.0
9,18.18068986168486
10,4.3
11,330.0
12,70.5
13,553.5
14,287.14159393359125
15,16.091720115635376
16,28.55827959626806
17,28.331812005597776
18,28.79600427594089
19,28.725786970219758
20,28.75727097563273
2,1, 7, 1, 0,19, 0.00,15.00,Saturday
7,25.1
8,14.0
9,18.019037601867492
10,3.9749999999999996
11,327.5
12,61.75
13,505.75
14,289.1798903817811
15,13.263488799251826
16,28.609436646989973
17,28.347540806023265
18,28.83057437815142
19,28.743921691163763
20,28.771651479484415
2,1, 7, 1, 0,19,15.00,30.00,Saturday
7,24.6
8,14.0
9,17.848106873358233
10,3.65
11,325.0
12,53.0
13,458.0
14,291.2450946566411
15,10.470272686673084
16,28.651361574246323
17,28.349992319409772
18,28.852997355739614
19,28.749152168939094
20,28.77484080784979
2,1, 7, 1, 0,19,30.00,45.00,Saturday
7,24.1
8,14.0
9,17.668158126064696
10,3.325
11,322.5
12,41.75
13,400.75
14,293.3456637850219
15,7.7162655757904615
16,28.68370289644262
17,28.337374633226958
18,28.86306591839315
19,28.741530836342857
20,28.766797149908008
2,1, 7, 1, 0,19,45.00,60.00,Saturday
7,23.6
8,14.0
9,17.479438716455146
10,3.0
11,320.0
12,30.5
13,343.5
14,295.4898080933642
15,5.005952572913233
16,28.70569875849143
17,28.3103940445782
18,28.859970612718783
19,28.721059244192695
20,28.747476234170026
2,1, 7, 1, 0,20, 0.00,15.00,Saturday
7,23.425000000000004
8,14.0
9,17.40756883568604
10,2.875
11,317.5
12,19.25
13,286.25
14,297.6855676643711
15,2.3441566502053424
16,28.71579610134752
17,28.276264890784972
18,28.84582101183992
19,28.687509123220348
20,28.716699585757947
2,1, 7, 1, 0,20,15.00,30.00,Saturday
7,23.25
8,14.0
9,17.33473023375409
10,2.75
11,315.0
12,0.0
13,0.0
14,299.9408604157276
15,-0.26391579952538635
16,28.718758535743977
17,28.23890819018009
18,28.821179585165076
19,28.643587215746095
20,28.673755135705562
2,1, 7, 1, 0,20,30.00,45.00,Saturday
7,23.074999999999996
8,14.0
9,17.260923687887498
10,2.625
11,312.5
12,0.0
13,0.0
14,302.26350180232293
15,-2.8126308098346384
16,28.71477805075876
17,28.19654766981535
18,28.78571513433619
19,28.590242753092454
20,28.62036450864172
2,1, 7, 1, 0,20,45.00,60.00,Saturday
7,22.9
8,14.0
9,17.186152866786333
10,2.5
11,310.0
12,0.0
13,0.0
14,304.66119458153827
15,-5.295885032692259
16,28.702063229215085
17,28.147029582706036
18,28.73920803822997
19,28.527144135859455
20,28.559555578218276
2,1, 7, 1, 0,21, 0.00,15.00,Saturday
7,22.525
8,13.925
9,17.048732879591192
10,2.45
11,310.0
12,0.0
13,0.0
14,307.1414857677526
15,-7.7070678467741836
16,28.680320693224825
17,28.0905260548411
18,28.682260071549972
19,28.456624245808094
20,28.49336884784148
2,1, 7, 1, 0,21,15.00,30.00,Saturday
7,22.15
8,13.85
9,16.906149400216357
10,2.4
11,310.0
12,0.0
13,0.0
14,309.71168688648476
15,-10.039029683007554
16,28.649302330059154
17,28.028502971860867
18,28.61548055522421
19,28.38022888629691
20,28.42343705294205
2,1, 7, 1, 0,21,30.00,45.00,Saturday
7,21.775
8,13.774999999999999
9,16.758502230426963
10,2.3499999999999996
11,310.0
12,0.0
13,0.0
14,312.3787530479686
15,-12.284059702199553
16,28.608585591364744
17,27.96206490664149
18,28.5392491450043
19,28.298531904818322
20,28.34973251792376
2,1, 7, 1, 0,21,45.00,60.00,Saturday
7,21.4
8,13.7
9,16.605901451743254
10,2.3
11,310.0
12,0.0
13,0.0
14,315.1491164077738
15,-14.433876874524358
16,28.558016197797336
17,27.891586164666528
18,28.453900684829073
19,28.211842179120815
20,28.271928325294603
2,1, 7, 1, 0,22, 0.00,15.00,Saturday
7,21.249999999999996
8,13.724999999999998
9,16.543490393173936
10,2.2249999999999996
11,310.0
12,0.0
13,0.0
14,318.0284705681509
15,-16.479639446215135
16,28.49788288133113
17,27.817164614873047
18,28.360249841427617
19,28.12056533465222
20,28.190121433395987
2,1, 7, 1, 0,22,15.00,30.00,Saturday
7,21.1
8,13.75
9,16.48031727689214
10,2.15
11,310.0
12,0.0
13,0.0
14,321.02150476594255
15,-18.411978622107345
16,28.42880967717535
17,27.739005124684557
18,28.259531696207027
19,28.025195244586786
20,28.10468471564836
2,1, 7, 1, 0,22,30.00,45.00,Saturday
7,20.950000000000003
8,13.775000000000002
9,16.416372328357394
10,2.075
11,310.0
12,0.0
13,0.0
14,324.13159067345754
15,-20.221062864740883
16,28.352383404557273
17,27.657490338646177
18,28.152853577462604
19,27.926254584275267
20,28.01602641808207
2,1, 7, 1, 0,22,45.00,60.00,Saturday
7,20.8
8,13.8
9,16.351669815988377
10,2.0
11,310.0
12,0.0
13,0.0
14,327.36043059791314
15,-21.896699260480652
16,28.269565440287185
17,27.573062089520413
18,28.041181219671717
19,27.82425154110273
20,27.92451365841566
2,1, 7, 1, 0,23, 0.00,15.00,Saturday
7,20.675
8,13.8
9,16.308299279653998
10,1.95
11,310.0
12,0.0
13,0.0
14,330.70768383050915
15,-23.428477619131154
16,28.18078363591686
17,27.485976061629874
18,27.92527526798531
19,27.719482115021076
20,27.830315889872804
2,1, 7, 1, 0,23,15.00,30.00,Saturday
7,20.55
8,13.8
9,16.2642746822009
10,1.9
11,310.0
12,0.0
13,0.0
14,334.17059740747374
15,-24.80596102625859
16,28.086733479642835
17,27.39659288429035
18,27.805999077653304
19,27.612417469261793
20,27.733800618469424
2,1, 7, 1, 0,23,30.00,45.00,Saturday
7,20.425
8,13.8
9,16.219600608339892
10,1.85
11,310.0
12,0.0
13,0.0
14,337.74367742442195
15,-26.01892319296482
16,27.988245795229968
17,27.30529106734015
18,27.684196625931605
19,27.50355476243204
20,27.635379141186384
2,1, 7, 1, 0,23,45.00,60.00,Saturday
7,20.3
8,13.8
9,16.174291758028307
10,1.8
11,310.0
12,0.0
13,0.0
14,341.41844526866106
15,-27.05762807377602
16,27.88601040919509
17,27.212357886126668
18,27.56055283242292
19,27.393258432390144
20,27.535346083532414
2,1, 7, 1, 0,24, 0.00,15.00,Saturday
7,20.150000000000002
8,13.8
9,16.13857977135296
10,1.725
11,310.0
12,0.0
13,0.0
14,345.1833269614726
15,-27.91314111582019
16,27.780591556614567
17,27.118030698949855
18,27.43562807322663
19,27.281814311773783
20,27.433935781914748
2,1, 7, 1, 0,24,15.00,30.00,Saturday
7,20.0
8,13.8
9,16.101669539498683
10,1.65
11,310.0
12,0.0
13,0.0
14,349.023720308631
15,-28.577654883219218
16,27.672538139339995
17,27.0225752618583
18,27.309959811317913
19,27.169524911455557
20,27.331414972668014
2,1, 7, 1, 0,24,30.00,45.00,Saturday
7,19.849999999999998
8,13.8
9,16.063556729307052
10,1.575
11,310.0
12,0.0
13,0.0
14,352.92227159647854
15,-29.044805856206494
16,27.562449068537582
17,26.926336374588633
18,27.184156449117772
19,27.056760538814064
20,27.228128359845552
2,1, 7, 1, 0,24,45.00,60.00,Saturday
7,19.7
8,13.8
9,16.024273326273946
10,1.5
11,310.0
12,0.0
13,0.0
14,356.8593709609989
15,-29.30995541434711
16,27.450982355709943
17,26.829726452952876
18,27.058961038156212
19,26.94394352235594
20,27.124484591244595
End of Data
 Number of Records Written=        1344
